<?xml version="1.0" encoding="UTF-8"?>

<!-- generated on 2024-11-17 20:23:29 by Eclipse SUMO GUI Version 1.21.0
This data file and the accompanying materials
are made available under the terms of the Eclipse Public License v2.0
which accompanies this distribution, and is available at
http://www.eclipse.org/legal/epl-v20.html
This file may also be made available under the following Secondary
Licenses when the conditions for such availability set forth in the Eclipse
Public License 2.0 are satisfied: GNU General Public License, version 2
or later which is available at
https://www.gnu.org/licenses/old-licenses/gpl-2.0-standalone.html
SPDX-License-Identifier: EPL-2.0 OR GPL-2.0-or-later
<sumoConfiguration xmlns:xsi="http://www.w3.org/2001/XMLSchema-instance" xsi:noNamespaceSchemaLocation="http://sumo.dlr.de/xsd/sumoConfiguration.xsd">

    <input>
        <net-file value="net/single-stage2.net.xml"/>
        <route-files value="net/single-stage2.rou.xml"/>
        <additional-files value="net/single_test.add.xml"/>
    </input>

    <output>
        <write-license value="true"/>
        <tripinfo-output value="data/tripinfo.xml"/>
    </output>

    <time>
        <begin value="0"/>
        <end value="3600"/>
        <step-length value="0.25"/>
    </time>

    <processing>
        <collision.action value="warn"/>
        <time-to-teleport value="-1"/>
        <default.speeddev value="0.1"/>
    </processing>

    <emissions>
        <emissions.volumetric-fuel value="true"/>
        <device.emissions.probability value="1.0"/>
    </emissions>

    <traci_server>
        <remote-port value="49658"/>
    </traci_server>

    <random_number>
        <seed value="42"/>
    </random_number>

    <gui_only>
        <gui-settings-file value="net/gui.xml"/>
    </gui_only>

</sumoConfiguration>
-->

<tripinfos xmlns:xsi="http://www.w3.org/2001/XMLSchema-instance"
           xsi:noNamespaceSchemaLocation="http://sumo.dlr.de/xsd/tripinfo_file.xsd">
    <tripinfo id="flow_ns_cav.0" depart="1.50" departLane="n_t_1" departPos="5.10" departSpeed="11.95"
              departDelay="0.00" arrival="55.00" arrivalLane="t_s0_0" arrivalPos="200.00" arrivalSpeed="15.00"
              duration="53.50" routeLength="795.10" waitingTime="0.00" waitingCount="0" stopTime="0.00" timeLoss="0.25"
              rerouteNo="0" devices="tripinfo_flow_ns_cav.0 emissions_flow_ns_cav.0" vType="CAV_STRAIGHT"
              speedFactor="1.07" vaporized="">
        <emissions CO_abs="186.443612" CO2_abs="141263.100094" HC_abs="1.800436" PMx_abs="0.990066" NOx_abs="43.892231"
                   fuel_abs="60.723579" electricity_abs="0"/>
    </tripinfo>
    <tripinfo id="flow_se_hv.0" depart="2.50" departLane="s_t_0" departPos="5.10" departSpeed="14.26" departDelay="0.00"
              arrival="58.75" arrivalLane="t_e0_0" arrivalPos="200.00" arrivalSpeed="15.00" duration="56.25"
              routeLength="776.93" waitingTime="0.00" waitingCount="0" stopTime="0.00" timeLoss="3.91" rerouteNo="0"
              devices="tripinfo_flow_se_hv.0 emissions_flow_se_hv.0" vType="HV_RIGHT" speedFactor="1.16" vaporized="">
        <emissions CO_abs="491.713712" CO2_abs="134303.177646" HC_abs="3.878757" PMx_abs="1.134182" NOx_abs="43.478338"
                   fuel_abs="57.731808" electricity_abs="0"/>
    </tripinfo>
    <tripinfo id="flow_en_cav.0" depart="2.50" departLane="e_t_0" departPos="5.10" departSpeed="2.75" departDelay="0.00"
              arrival="61.25" arrivalLane="t_n0_0" arrivalPos="200.00" arrivalSpeed="15.00" duration="58.75"
              routeLength="776.93" waitingTime="0.00" waitingCount="0" stopTime="0.00" timeLoss="6.15" rerouteNo="0"
              devices="tripinfo_flow_en_cav.0 emissions_flow_en_cav.0" vType="CAV_RIGHT" speedFactor="0.88"
              vaporized="">
        <emissions CO_abs="1399.129654" CO2_abs="170423.204679" HC_abs="8.866553" PMx_abs="2.023287" NOx_abs="60.373010"
                   fuel_abs="73.258110" electricity_abs="0"/>
    </tripinfo>
    <tripinfo id="flow_wn_hv.0" depart="5.50" departLane="w_t_2" departPos="5.10" departSpeed="11.70" departDelay="0.00"
              arrival="63.25" arrivalLane="t_n0_1" arrivalPos="200.00" arrivalSpeed="15.00" duration="57.75"
              routeLength="792.41" waitingTime="0.00" waitingCount="0" stopTime="0.00" timeLoss="4.62" rerouteNo="0"
              devices="tripinfo_flow_wn_hv.0 emissions_flow_wn_hv.0" vType="HV_LEFT" speedFactor="1.08" vaporized="">
        <emissions CO_abs="688.502125" CO2_abs="148686.709785" HC_abs="5.036335" PMx_abs="1.430042" NOx_abs="49.801585"
                   fuel_abs="63.914545" electricity_abs="0"/>
    </tripinfo>
    <tripinfo id="flow_es_hv.0" depart="14.00" departLane="e_t_2" departPos="5.10" departSpeed="8.95" departDelay="0.00"
              arrival="69.00" arrivalLane="t_s0_1" arrivalPos="200.00" arrivalSpeed="15.00" duration="55.00"
              routeLength="792.41" waitingTime="0.00" waitingCount="0" stopTime="0.00" timeLoss="1.90" rerouteNo="0"
              devices="tripinfo_flow_es_hv.0 emissions_flow_es_hv.0" vType="HV_LEFT" speedFactor="1.13" vaporized="">
        <emissions CO_abs="437.572858" CO2_abs="152074.442398" HC_abs="3.677567" PMx_abs="1.257259" NOx_abs="49.193047"
                   fuel_abs="65.370889" electricity_abs="0"/>
    </tripinfo>
    <tripinfo id="flow_wn_hv.1" depart="16.00" departLane="w_t_2" departPos="5.10" departSpeed="6.69" departDelay="0.00"
              arrival="74.50" arrivalLane="t_n0_2" arrivalPos="200.00" arrivalSpeed="15.00" duration="58.50"
              routeLength="792.41" waitingTime="0.00" waitingCount="0" stopTime="0.00" timeLoss="4.93" rerouteNo="0"
              devices="tripinfo_flow_wn_hv.1 emissions_flow_wn_hv.1" vType="HV_LEFT" speedFactor="0.84" vaporized="">
        <emissions CO_abs="831.311811" CO2_abs="158973.490999" HC_abs="6.104626" PMx_abs="1.542438" NOx_abs="53.733728"
                   fuel_abs="68.336505" electricity_abs="0"/>
    </tripinfo>
    <tripinfo id="flow_wn_cav.0" depart="18.50" departLane="w_t_2" departPos="5.10" departSpeed="2.34"
              departDelay="0.00" arrival="76.50" arrivalLane="t_n0_1" arrivalPos="200.00" arrivalSpeed="15.00"
              duration="58.00" routeLength="792.41" waitingTime="0.00" waitingCount="0" stopTime="0.00" timeLoss="4.76"
              rerouteNo="0" devices="tripinfo_flow_wn_cav.0 emissions_flow_wn_cav.0" vType="CAV_LEADER"
              speedFactor="1.00" vaporized="">
        <emissions CO_abs="910.406704" CO2_abs="162232.052801" HC_abs="6.706779" PMx_abs="1.715964" NOx_abs="55.958660"
                   fuel_abs="69.737119" electricity_abs="0"/>
    </tripinfo>
    <tripinfo id="flow_en_hv.0" depart="20.50" departLane="e_t_0" departPos="5.10" departSpeed="6.89" departDelay="0.00"
              arrival="78.25" arrivalLane="t_n0_0" arrivalPos="200.00" arrivalSpeed="15.00" duration="57.75"
              routeLength="776.93" waitingTime="0.00" waitingCount="0" stopTime="0.00" timeLoss="5.43" rerouteNo="0"
              devices="tripinfo_flow_en_hv.0 emissions_flow_en_hv.0" vType="HV_RIGHT" speedFactor="1.16" vaporized="">
        <emissions CO_abs="963.561817" CO2_abs="157346.514323" HC_abs="6.791221" PMx_abs="1.668299" NOx_abs="54.073702"
                   fuel_abs="67.637058" electricity_abs="0"/>
    </tripinfo>
    <tripinfo id="flow_se_hv.1" depart="21.75" departLane="s_t_0" departPos="5.10" departSpeed="12.99"
              departDelay="0.00" arrival="79.50" arrivalLane="t_e0_0" arrivalPos="200.00" arrivalSpeed="15.00"
              duration="57.75" routeLength="776.93" waitingTime="0.00" waitingCount="0" stopTime="0.00" timeLoss="5.33"
              rerouteNo="0" devices="tripinfo_flow_se_hv.1 emissions_flow_se_hv.1" vType="HV_RIGHT" speedFactor="0.94"
              vaporized="">
        <emissions CO_abs="763.882806" CO2_abs="142820.435101" HC_abs="5.480122" PMx_abs="1.379180" NOx_abs="47.818727"
                   fuel_abs="61.392992" electricity_abs="0"/>
    </tripinfo>
    <tripinfo id="flow_wn_hv.2" depart="21.75" departLane="w_t_2" departPos="5.10" departSpeed="5.01" departDelay="0.00"
              arrival="81.75" arrivalLane="t_n0_1" arrivalPos="200.00" arrivalSpeed="14.99" duration="60.00"
              routeLength="792.41" waitingTime="0.00" waitingCount="0" stopTime="0.00" timeLoss="6.67" rerouteNo="0"
              devices="tripinfo_flow_wn_hv.2 emissions_flow_wn_hv.2" vType="HV_LEFT" speedFactor="0.99" vaporized="">
        <emissions CO_abs="700.605834" CO2_abs="161925.475736" HC_abs="6.183233" PMx_abs="1.491008" NOx_abs="54.520659"
                   fuel_abs="69.605563" electricity_abs="0"/>
    </tripinfo>
    <tripinfo id="flow_en_hv.1" depart="24.00" departLane="e_t_0" departPos="5.10" departSpeed="12.91"
              departDelay="0.00" arrival="84.25" arrivalLane="t_n0_0" arrivalPos="200.00" arrivalSpeed="14.98"
              duration="60.25" routeLength="776.93" waitingTime="0.00" waitingCount="0" stopTime="0.00" timeLoss="7.67"
              rerouteNo="0" devices="tripinfo_flow_en_hv.1 emissions_flow_en_hv.1" vType="HV_RIGHT" speedFactor="1.00"
              vaporized="">
        <emissions CO_abs="653.056524" CO2_abs="145294.448480" HC_abs="5.352711" PMx_abs="1.263976" NOx_abs="48.325444"
                   fuel_abs="62.456613" electricity_abs="0"/>
    </tripinfo>
    <tripinfo id="flow_es_cav.0" depart="30.75" departLane="e_t_2" departPos="5.10" departSpeed="2.09"
              departDelay="0.00" arrival="86.00" arrivalLane="t_s0_1" arrivalPos="200.00" arrivalSpeed="15.00"
              duration="55.25" routeLength="792.41" waitingTime="0.00" waitingCount="0" stopTime="0.00" timeLoss="2.14"
              rerouteNo="0" devices="tripinfo_flow_es_cav.0 emissions_flow_es_cav.0" vType="CAV_LEADER"
              speedFactor="1.08" vaporized="">
        <emissions CO_abs="832.001172" CO2_abs="166137.848224" HC_abs="5.704311" PMx_abs="1.665221" NOx_abs="56.072255"
                   fuel_abs="71.416048" electricity_abs="0"/>
    </tripinfo>
    <tripinfo id="flow_wn_hv.3" depart="23.00" departLane="w_t_2" departPos="5.10" departSpeed="0.31" departDelay="1.00"
              arrival="86.25" arrivalLane="t_n0_1" arrivalPos="200.00" arrivalSpeed="14.93" duration="63.25"
              routeLength="792.41" waitingTime="0.00" waitingCount="0" stopTime="0.00" timeLoss="10.14" rerouteNo="0"
              devices="tripinfo_flow_wn_hv.3 emissions_flow_wn_hv.3" vType="HV_LEFT" speedFactor="1.13" vaporized="">
        <emissions CO_abs="1042.021962" CO2_abs="174312.736010" HC_abs="8.040167" PMx_abs="1.608123" NOx_abs="59.082379"
                   fuel_abs="74.930588" electricity_abs="0"/>
    </tripinfo>
    <tripinfo id="flow_wn_hv.4" depart="26.00" departLane="w_t_2" departPos="5.10" departSpeed="0.00" departDelay="1.75"
              arrival="90.25" arrivalLane="t_n0_2" arrivalPos="200.00" arrivalSpeed="15.00" duration="64.25"
              routeLength="792.41" waitingTime="0.00" waitingCount="0" stopTime="0.00" timeLoss="10.82" rerouteNo="0"
              devices="tripinfo_flow_wn_hv.4 emissions_flow_wn_hv.4" vType="HV_LEFT" speedFactor="0.87" vaporized="">
        <emissions CO_abs="1260.146122" CO2_abs="174894.265518" HC_abs="9.042196" PMx_abs="1.749664" NOx_abs="60.433917"
                   fuel_abs="75.180521" electricity_abs="0"/>
    </tripinfo>
    <tripinfo id="flow_wn_cav.1" depart="29.50" departLane="w_t_2" departPos="5.10" departSpeed="1.47"
              departDelay="0.00" arrival="92.25" arrivalLane="t_n0_1" arrivalPos="200.00" arrivalSpeed="15.00"
              duration="62.75" routeLength="792.41" waitingTime="0.00" waitingCount="0" stopTime="0.00" timeLoss="9.43"
              rerouteNo="0" devices="tripinfo_flow_wn_cav.1 emissions_flow_wn_cav.1" vType="CAV_LEADER"
              speedFactor="0.97" vaporized="">
        <emissions CO_abs="1224.127021" CO2_abs="172058.915725" HC_abs="8.687371" PMx_abs="1.791567" NOx_abs="59.733891"
                   fuel_abs="73.961587" electricity_abs="0"/>
    </tripinfo>
    <tripinfo id="flow_nw_hv.0" depart="32.25" departLane="n_t_0" departPos="5.10" departSpeed="0.70" departDelay="0.00"
              arrival="93.50" arrivalLane="t_w0_0" arrivalPos="200.00" arrivalSpeed="15.00" duration="61.25"
              routeLength="776.93" waitingTime="0.00" waitingCount="0" stopTime="0.00" timeLoss="8.77" rerouteNo="0"
              devices="tripinfo_flow_nw_hv.0 emissions_flow_nw_hv.0" vType="HV_RIGHT" speedFactor="0.94" vaporized="">
        <emissions CO_abs="1593.401406" CO2_abs="172193.723290" HC_abs="10.092130" PMx_abs="2.085921"
                   NOx_abs="61.493856" fuel_abs="74.019324" electricity_abs="0"/>
    </tripinfo>
    <tripinfo id="flow_wn_hv.5" depart="33.75" departLane="w_t_2" departPos="5.10" departSpeed="8.49" departDelay="0.00"
              arrival="96.75" arrivalLane="t_n0_1" arrivalPos="200.00" arrivalSpeed="14.92" duration="63.00"
              routeLength="792.41" waitingTime="0.00" waitingCount="0" stopTime="0.00" timeLoss="9.61" rerouteNo="0"
              devices="tripinfo_flow_wn_hv.5 emissions_flow_wn_hv.5" vType="HV_LEFT" speedFactor="1.00" vaporized="">
        <emissions CO_abs="687.271524" CO2_abs="160433.557136" HC_abs="6.113955" PMx_abs="1.291905" NOx_abs="53.096344"
                   fuel_abs="68.964500" electricity_abs="0"/>
    </tripinfo>
    <tripinfo id="flow_nw_hv.1" depart="35.50" departLane="n_t_0" departPos="5.10" departSpeed="5.13" departDelay="0.00"
              arrival="98.25" arrivalLane="t_w0_0" arrivalPos="200.00" arrivalSpeed="14.94" duration="62.75"
              routeLength="776.93" waitingTime="0.00" waitingCount="0" stopTime="0.00" timeLoss="10.54" rerouteNo="0"
              devices="tripinfo_flow_nw_hv.1 emissions_flow_nw_hv.1" vType="HV_RIGHT" speedFactor="1.08" vaporized="">
        <emissions CO_abs="1165.398554" CO2_abs="166362.791510" HC_abs="8.406024" PMx_abs="1.730047" NOx_abs="57.994051"
                   fuel_abs="71.513004" electricity_abs="0"/>
    </tripinfo>
    <tripinfo id="flow_ws_hv.0" depart="39.75" departLane="w_t_0" departPos="5.10" departSpeed="3.49" departDelay="0.00"
              arrival="99.75" arrivalLane="t_s0_0" arrivalPos="200.00" arrivalSpeed="15.00" duration="60.00"
              routeLength="776.93" waitingTime="0.00" waitingCount="0" stopTime="0.00" timeLoss="7.54" rerouteNo="0"
              devices="tripinfo_flow_ws_hv.0 emissions_flow_ws_hv.0" vType="HV_RIGHT" speedFactor="0.94" vaporized="">
        <emissions CO_abs="1386.957502" CO2_abs="167630.415903" HC_abs="9.037148" PMx_abs="1.979394" NOx_abs="59.404663"
                   fuel_abs="72.057682" electricity_abs="0"/>
    </tripinfo>
    <tripinfo id="flow_we_cav.0" depart="19.50" departLane="w_t_1" departPos="5.10" departSpeed="1.50"
              departDelay="0.00" arrival="101.25" arrivalLane="t_e0_0" arrivalPos="200.00" arrivalSpeed="15.00"
              duration="81.75" routeLength="795.10" waitingTime="21.00" waitingCount="1" stopTime="0.00"
              timeLoss="28.64" rerouteNo="0" devices="tripinfo_flow_we_cav.0 emissions_flow_we_cav.0" vType="CAV_LEADER"
              speedFactor="0.99" vaporized="">
        <emissions CO_abs="5226.015643" CO2_abs="249883.929762" HC_abs="27.721811" PMx_abs="3.822966"
                   NOx_abs="95.342817" fuel_abs="107.416459" electricity_abs="0"/>
    </tripinfo>
    <tripinfo id="flow_ew_hv.0" depart="20.50" departLane="e_t_1" departPos="5.10" departSpeed="0.87" departDelay="0.00"
              arrival="102.50" arrivalLane="t_w0_0" arrivalPos="200.00" arrivalSpeed="14.99" duration="82.00"
              routeLength="795.10" waitingTime="9.25" waitingCount="3" stopTime="0.00" timeLoss="28.99" rerouteNo="0"
              devices="tripinfo_flow_ew_hv.0 emissions_flow_ew_hv.0" vType="HV_STRAIGHT" speedFactor="0.82"
              vaporized="">
        <emissions CO_abs="4006.648239" CO2_abs="216504.416191" HC_abs="22.017609" PMx_abs="3.159129"
                   NOx_abs="81.713351" fuel_abs="93.067585" electricity_abs="0"/>
    </tripinfo>
    <tripinfo id="flow_en_hv.2" depart="45.50" departLane="e_t_0" departPos="5.10" departSpeed="3.00" departDelay="0.00"
              arrival="104.50" arrivalLane="t_n0_0" arrivalPos="200.00" arrivalSpeed="15.00" duration="59.00"
              routeLength="776.93" waitingTime="0.00" waitingCount="0" stopTime="0.00" timeLoss="6.70" rerouteNo="0"
              devices="tripinfo_flow_en_hv.2 emissions_flow_en_hv.2" vType="HV_RIGHT" speedFactor="1.15" vaporized="">
        <emissions CO_abs="1233.259321" CO2_abs="165052.875628" HC_abs="8.292570" PMx_abs="1.877998" NOx_abs="57.873154"
                   fuel_abs="70.949712" electricity_abs="0"/>
    </tripinfo>
    <tripinfo id="flow_we_hv.0" depart="41.25" departLane="w_t_1" departPos="5.10" departSpeed="1.36" departDelay="0.00"
              arrival="105.75" arrivalLane="t_e0_1" arrivalPos="200.00" arrivalSpeed="15.00" duration="64.50"
              routeLength="795.10" waitingTime="0.00" waitingCount="0" stopTime="0.00" timeLoss="11.32" rerouteNo="0"
              devices="tripinfo_flow_we_hv.0 emissions_flow_we_hv.0" vType="HV_STRAIGHT" speedFactor="0.82"
              vaporized="">
        <emissions CO_abs="1503.135752" CO2_abs="176981.522541" HC_abs="10.051785" PMx_abs="2.068384"
                   NOx_abs="63.068427" fuel_abs="76.077429" electricity_abs="0"/>
    </tripinfo>
    <tripinfo id="flow_ws_cav.0" depart="48.25" departLane="w_t_0" departPos="5.10" departSpeed="7.71"
              departDelay="0.00" arrival="106.00" arrivalLane="t_s0_0" arrivalPos="200.00" arrivalSpeed="15.00"
              duration="57.75" routeLength="776.93" waitingTime="0.00" waitingCount="0" stopTime="0.00" timeLoss="5.39"
              rerouteNo="0" devices="tripinfo_flow_ws_cav.0 emissions_flow_ws_cav.0" vType="CAV_RIGHT"
              speedFactor="1.07" vaporized="">
        <emissions CO_abs="934.783515" CO2_abs="159125.646526" HC_abs="6.582088" PMx_abs="1.646397" NOx_abs="54.589292"
                   fuel_abs="68.401835" electricity_abs="0"/>
    </tripinfo>
    <tripinfo id="flow_ew_hv.1" depart="25.00" departLane="e_t_1" departPos="5.10" departSpeed="4.56" departDelay="0.00"
              arrival="107.25" arrivalLane="t_w0_0" arrivalPos="200.00" arrivalSpeed="14.94" duration="82.25"
              routeLength="795.10" waitingTime="6.25" waitingCount="1" stopTime="0.00" timeLoss="29.02" rerouteNo="0"
              devices="tripinfo_flow_ew_hv.1 emissions_flow_ew_hv.1" vType="HV_STRAIGHT" speedFactor="1.05"
              vaporized="">
        <emissions CO_abs="3372.955385" CO2_abs="208952.992750" HC_abs="19.504390" PMx_abs="2.808071"
                   NOx_abs="77.572633" fuel_abs="89.821528" electricity_abs="0"/>
    </tripinfo>
    <tripinfo id="flow_we_cav.1" depart="48.75" departLane="w_t_1" departPos="5.10" departSpeed="7.00"
              departDelay="0.00" arrival="107.50" arrivalLane="t_e0_0" arrivalPos="200.00" arrivalSpeed="15.00"
              duration="58.75" routeLength="795.10" waitingTime="0.00" waitingCount="0" stopTime="0.00" timeLoss="5.58"
              rerouteNo="0" devices="tripinfo_flow_we_cav.1 emissions_flow_we_cav.1" vType="CAV_LEADER"
              speedFactor="0.92" vaporized="">
        <emissions CO_abs="755.373142" CO2_abs="158561.293339" HC_abs="5.858172" PMx_abs="1.541284" NOx_abs="53.759771"
                   fuel_abs="68.159273" electricity_abs="0"/>
    </tripinfo>
    <tripinfo id="flow_ew_hv.2" depart="33.00" departLane="e_t_1" departPos="5.10" departSpeed="4.38" departDelay="0.00"
              arrival="111.25" arrivalLane="t_w0_0" arrivalPos="200.00" arrivalSpeed="14.87" duration="78.25"
              routeLength="795.10" waitingTime="1.50" waitingCount="1" stopTime="0.00" timeLoss="25.06" rerouteNo="0"
              devices="tripinfo_flow_ew_hv.2 emissions_flow_ew_hv.2" vType="HV_STRAIGHT" speedFactor="0.91"
              vaporized="">
        <emissions CO_abs="2800.705785" CO2_abs="201066.569578" HC_abs="16.846681" PMx_abs="2.604389"
                   NOx_abs="74.034173" fuel_abs="86.431210" electricity_abs="0"/>
    </tripinfo>
    <tripinfo id="flow_ws_hv.1" depart="49.75" departLane="w_t_0" departPos="5.10" departSpeed="7.94" departDelay="0.00"
              arrival="111.50" arrivalLane="t_s0_0" arrivalPos="200.00" arrivalSpeed="14.97" duration="61.75"
              routeLength="776.93" waitingTime="0.00" waitingCount="0" stopTime="0.00" timeLoss="9.35" rerouteNo="0"
              devices="tripinfo_flow_ws_hv.1 emissions_flow_ws_hv.1" vType="HV_RIGHT" speedFactor="0.95" vaporized="">
        <emissions CO_abs="1036.109514" CO2_abs="162639.603987" HC_abs="7.651946" PMx_abs="1.643309" NOx_abs="56.198942"
                   fuel_abs="69.912536" electricity_abs="0"/>
    </tripinfo>
    <tripinfo id="flow_we_hv.1" depart="49.75" departLane="w_t_1" departPos="5.10" departSpeed="0.00" departDelay="0.25"
              arrival="111.75" arrivalLane="t_e0_0" arrivalPos="200.00" arrivalSpeed="14.91" duration="62.00"
              routeLength="795.10" waitingTime="0.00" waitingCount="0" stopTime="0.00" timeLoss="8.96" rerouteNo="0"
              devices="tripinfo_flow_we_hv.1 emissions_flow_we_hv.1" vType="HV_STRAIGHT" speedFactor="0.86"
              vaporized="">
        <emissions CO_abs="1047.014038" CO2_abs="172702.973490" HC_abs="7.831967" PMx_abs="1.632822" NOx_abs="58.388464"
                   fuel_abs="74.238552" electricity_abs="0"/>
    </tripinfo>
    <tripinfo id="flow_ew_cav.0" depart="55.75" departLane="e_t_1" departPos="5.10" departSpeed="4.57"
              departDelay="0.00" arrival="111.75" arrivalLane="t_w0_1" arrivalPos="200.00" arrivalSpeed="15.00"
              duration="56.00" routeLength="795.10" waitingTime="0.00" waitingCount="0" stopTime="0.00" timeLoss="3.00"
              rerouteNo="0" devices="tripinfo_flow_ew_cav.0 emissions_flow_ew_cav.0" vType="CAV_LEADER"
              speedFactor="1.04" vaporized="">
        <emissions CO_abs="750.705577" CO2_abs="159996.495514" HC_abs="5.170983" PMx_abs="1.484413" NOx_abs="53.217479"
                   fuel_abs="68.776215" electricity_abs="0"/>
    </tripinfo>
    <tripinfo id="flow_we_cav.2" depart="58.50" departLane="w_t_1" departPos="5.10" departSpeed="9.15"
              departDelay="0.00" arrival="113.50" arrivalLane="t_e0_1" arrivalPos="200.00" arrivalSpeed="15.00"
              duration="55.00" routeLength="795.10" waitingTime="0.00" waitingCount="0" stopTime="0.00" timeLoss="1.89"
              rerouteNo="0" devices="tripinfo_flow_we_cav.2 emissions_flow_we_cav.2" vType="CAV_LEADER"
              speedFactor="1.14" vaporized="">
        <emissions CO_abs="400.238662" CO2_abs="150558.807763" HC_abs="3.236740" PMx_abs="1.189112" NOx_abs="48.246417"
                   fuel_abs="64.719412" electricity_abs="0"/>
    </tripinfo>
    <tripinfo id="flow_nw_cav.0" depart="56.50" departLane="n_t_0" departPos="5.10" departSpeed="10.26"
              departDelay="0.00" arrival="115.00" arrivalLane="t_w0_0" arrivalPos="200.00" arrivalSpeed="14.94"
              duration="58.50" routeLength="776.93" waitingTime="0.00" waitingCount="0" stopTime="0.00" timeLoss="6.10"
              rerouteNo="0" devices="tripinfo_flow_nw_cav.0 emissions_flow_nw_cav.0" vType="CAV_RIGHT"
              speedFactor="1.02" vaporized="">
        <emissions CO_abs="931.487831" CO2_abs="156090.893617" HC_abs="7.010440" PMx_abs="1.663385" NOx_abs="53.988191"
                   fuel_abs="67.097312" electricity_abs="0"/>
    </tripinfo>
    <tripinfo id="flow_ws_hv.2" depart="58.75" departLane="w_t_0" departPos="5.10" departSpeed="12.50"
              departDelay="0.00" arrival="117.25" arrivalLane="t_s0_0" arrivalPos="200.00" arrivalSpeed="14.98"
              duration="58.50" routeLength="776.93" waitingTime="0.00" waitingCount="0" stopTime="0.00" timeLoss="6.14"
              rerouteNo="0" devices="tripinfo_flow_ws_hv.2 emissions_flow_ws_hv.2" vType="HV_RIGHT" speedFactor="1.05"
              vaporized="">
        <emissions CO_abs="639.644128" CO2_abs="144846.879707" HC_abs="5.085654" PMx_abs="1.281144" NOx_abs="48.032467"
                   fuel_abs="62.264149" electricity_abs="0"/>
    </tripinfo>
    <tripinfo id="flow_sw_cav.0" depart="4.25" departLane="s_t_2" departPos="5.10" departSpeed="10.98"
              departDelay="0.00" arrival="121.00" arrivalLane="t_w0_1" arrivalPos="200.00" arrivalSpeed="15.00"
              duration="116.75" routeLength="792.41" waitingTime="56.75" waitingCount="1" stopTime="0.00"
              timeLoss="63.50" rerouteNo="0" devices="tripinfo_flow_sw_cav.0 emissions_flow_sw_cav.0" vType="CAV_LEADER"
              speedFactor="0.93" vaporized="">
        <emissions CO_abs="10642.084578" CO2_abs="315608.688638" HC_abs="53.982508" PMx_abs="5.655954"
                   NOx_abs="126.668763" fuel_abs="135.671434" electricity_abs="0"/>
    </tripinfo>
    <tripinfo id="flow_ne_hv.0" depart="0.25" departLane="n_t_2" departPos="5.10" departSpeed="5.62" departDelay="0.00"
              arrival="122.50" arrivalLane="t_e0_1" arrivalPos="200.00" arrivalSpeed="15.00" duration="122.25"
              routeLength="792.41" waitingTime="51.25" waitingCount="3" stopTime="0.00" timeLoss="68.96" rerouteNo="0"
              devices="tripinfo_flow_ne_hv.0 emissions_flow_ne_hv.0" vType="HV_LEFT" speedFactor="0.95" vaporized="">
        <emissions CO_abs="10644.397636" CO2_abs="318719.473585" HC_abs="54.563794" PMx_abs="5.735095"
                   NOx_abs="128.572366" fuel_abs="137.008600" electricity_abs="0"/>
    </tripinfo>
    <tripinfo id="flow_nw_hv.2" depart="64.00" departLane="n_t_0" departPos="5.10" departSpeed="3.88" departDelay="0.00"
              arrival="122.75" arrivalLane="t_w0_0" arrivalPos="200.00" arrivalSpeed="15.00" duration="58.75"
              routeLength="776.93" waitingTime="0.00" waitingCount="0" stopTime="0.00" timeLoss="6.63" rerouteNo="0"
              devices="tripinfo_flow_nw_hv.2 emissions_flow_nw_hv.2" vType="HV_RIGHT" speedFactor="1.21" vaporized="">
        <emissions CO_abs="1095.383371" CO2_abs="163363.964453" HC_abs="7.625982" PMx_abs="1.761017" NOx_abs="56.615663"
                   fuel_abs="70.223754" electricity_abs="0"/>
    </tripinfo>
    <tripinfo id="flow_sw_hv.0" depart="12.75" departLane="s_t_2" departPos="5.10" departSpeed="8.98" departDelay="0.00"
              arrival="125.75" arrivalLane="t_w0_2" arrivalPos="200.00" arrivalSpeed="15.00" duration="113.00"
              routeLength="792.41" waitingTime="42.00" waitingCount="1" stopTime="0.00" timeLoss="59.85" rerouteNo="0"
              devices="tripinfo_flow_sw_hv.0 emissions_flow_sw_hv.0" vType="HV_LEFT" speedFactor="1.03" vaporized="">
        <emissions CO_abs="8889.664780" CO2_abs="288887.787195" HC_abs="46.161606" PMx_abs="4.926751"
                   NOx_abs="114.524756" fuel_abs="124.184614" electricity_abs="0"/>
    </tripinfo>
    <tripinfo id="flow_ne_hv.1" depart="14.75" departLane="n_t_2" departPos="5.10" departSpeed="2.34" departDelay="0.00"
              arrival="126.75" arrivalLane="t_e0_2" arrivalPos="200.00" arrivalSpeed="15.00" duration="112.00"
              routeLength="792.41" waitingTime="37.75" waitingCount="1" stopTime="0.00" timeLoss="58.64" rerouteNo="0"
              devices="tripinfo_flow_ne_hv.1 emissions_flow_ne_hv.1" vType="HV_LEFT" speedFactor="0.88" vaporized="">
        <emissions CO_abs="8724.709005" CO2_abs="292258.032790" HC_abs="45.677803" PMx_abs="5.017102"
                   NOx_abs="116.479793" fuel_abs="125.633106" electricity_abs="0"/>
    </tripinfo>
    <tripinfo id="flow_sw_cav.1" depart="24.25" departLane="s_t_2" departPos="5.10" departSpeed="12.49"
              departDelay="0.00" arrival="127.50" arrivalLane="t_w0_1" arrivalPos="200.00" arrivalSpeed="15.00"
              duration="103.25" routeLength="792.41" waitingTime="33.00" waitingCount="1" stopTime="0.00"
              timeLoss="50.10" rerouteNo="0" devices="tripinfo_flow_sw_cav.1 emissions_flow_sw_cav.1" vType="CAV_LEADER"
              speedFactor="1.10" vaporized="">
        <emissions CO_abs="7307.565211" CO2_abs="257281.460682" HC_abs="37.936972" PMx_abs="4.138372"
                   NOx_abs="99.911409" fuel_abs="110.597795" electricity_abs="0"/>
    </tripinfo>
    <tripinfo id="flow_ne_cav.0" depart="40.00" departLane="n_t_2" departPos="5.10" departSpeed="6.84"
              departDelay="0.00" arrival="128.25" arrivalLane="t_e0_1" arrivalPos="200.00" arrivalSpeed="15.00"
              duration="88.25" routeLength="792.41" waitingTime="18.75" waitingCount="1" stopTime="0.00"
              timeLoss="35.28" rerouteNo="0" devices="tripinfo_flow_ne_cav.0 emissions_flow_ne_cav.0" vType="CAV_LEADER"
              speedFactor="1.08" vaporized="">
        <emissions CO_abs="5312.256886" CO2_abs="245441.240486" HC_abs="28.577226" PMx_abs="3.693680"
                   NOx_abs="93.654439" fuel_abs="105.506999" electricity_abs="0"/>
    </tripinfo>
    <tripinfo id="flow_sw_cav.2" depart="54.75" departLane="s_t_2" departPos="5.10" departSpeed="14.48"
              departDelay="0.00" arrival="131.75" arrivalLane="t_w0_1" arrivalPos="200.00" arrivalSpeed="14.97"
              duration="77.00" routeLength="792.41" waitingTime="4.25" waitingCount="1" stopTime="0.00" timeLoss="23.76"
              rerouteNo="0" devices="tripinfo_flow_sw_cav.2 emissions_flow_sw_cav.2" vType="CAV_LEFT" speedFactor="1.03"
              vaporized="">
        <emissions CO_abs="2580.670265" CO2_abs="177276.521648" HC_abs="14.822206" PMx_abs="2.090363"
                   NOx_abs="63.196494" fuel_abs="76.205109" electricity_abs="0"/>
    </tripinfo>
    <tripinfo id="flow_ne_cav.1" depart="67.00" departLane="n_t_2" departPos="5.10" departSpeed="3.12"
              departDelay="0.00" arrival="132.50" arrivalLane="t_e0_1" arrivalPos="200.00" arrivalSpeed="14.97"