<?xml version="1.0" encoding="UTF-8"?>

<!-- generated on 2024-10-19 16:47:11 by Eclipse SUMO GUI Version 1.20.0
This data file and the accompanying materials
are made available under the terms of the Eclipse Public License v2.0
which accompanies this distribution, and is available at
http://www.eclipse.org/legal/epl-v20.html
This file may also be made available under the following Secondary
Licenses when the conditions for such availability set forth in the Eclipse
Public License 2.0 are satisfied: GNU General Public License, version 2
or later which is available at
https://www.gnu.org/licenses/old-licenses/gpl-2.0-standalone.html
SPDX-License-Identifier: EPL-2.0 OR GPL-2.0-or-later
<configuration xmlns:xsi="http://www.w3.org/2001/XMLSchema-instance" xsi:noNamespaceSchemaLocation="http://sumo.dlr.de/xsd/sumoConfiguration.xsd">

    <input>
        <net-file value="D:\Code\Sumo\stage2\net\single-stage2.net.xml"/>
        <route-files value="D:\Code\Sumo\stage2\net\single-stage2.rou.xml"/>
        <additional-files value="D:\Code\Sumo\stage2\net\single_test.add.xml"/>
    </input>

    <output>
        <write-license value="true"/>
    </output>

    <time>
        <begin value="0"/>
        <end value="3600"/>
        <step-length value="0.25"/>
    </time>

    <processing>
        <collision.action value="warn"/>
        <time-to-teleport value="-1"/>
        <default.speeddev value="0.1"/>
    </processing>

    <gui_only>
        <gui-settings-file value="D:\Code\Sumo\stage2\net\gui.xml"/>
    </gui_only>

</configuration>
-->

<detector xmlns:xsi="http://www.w3.org/2001/XMLSchema-instance"
          xsi:noNamespaceSchemaLocation="http://sumo.dlr.de/xsd/det_e1_file.xsd">
</detector>
