<?xml version="1.0" encoding="UTF-8"?>

<!-- generated on 2024-11-13 20:24:51 by Eclipse SUMO GUI Version 1.21.0
This data file and the accompanying materials
are made available under the terms of the Eclipse Public License v2.0
which accompanies this distribution, and is available at
http://www.eclipse.org/legal/epl-v20.html
This file may also be made available under the following Secondary
Licenses when the conditions for such availability set forth in the Eclipse
Public License 2.0 are satisfied: GNU General Public License, version 2
or later which is available at
https://www.gnu.org/licenses/old-licenses/gpl-2.0-standalone.html
SPDX-License-Identifier: EPL-2.0 OR GPL-2.0-or-later
<sumoConfiguration xmlns:xsi="http://www.w3.org/2001/XMLSchema-instance" xsi:noNamespaceSchemaLocation="http://sumo.dlr.de/xsd/sumoConfiguration.xsd">

    <input>
        <net-file value="net/single-stage2.net.xml"/>
        <route-files value="net/single-stage2.rou.xml"/>
        <additional-files value="net/single_test.add.xml"/>
    </input>

    <output>
        <write-license value="true"/>
        <tripinfo-output value="net/tripinfo.xml"/>
    </output>

    <time>
        <begin value="0"/>
        <end value="3600"/>
        <step-length value="0.25"/>
    </time>

    <processing>
        <collision.action value="warn"/>
        <time-to-teleport value="-1"/>
        <default.speeddev value="0.1"/>
    </processing>

    <emissions>
        <device.emissions.probability value="1.0"/>
    </emissions>

    <traci_server>
        <remote-port value="51282"/>
    </traci_server>

    <random_number>
        <seed value="42"/>
    </random_number>

    <gui_only>
        <gui-settings-file value="net/gui.xml"/>
    </gui_only>

</sumoConfiguration>
-->

<tripinfos xmlns:xsi="http://www.w3.org/2001/XMLSchema-instance"
           xsi:noNamespaceSchemaLocation="http://sumo.dlr.de/xsd/tripinfo_file.xsd">
    <tripinfo id="flow_ns_cav.0" depart="1.50" departLane="n_t_1" departPos="5.10" departSpeed="11.95"
              departDelay="0.00" arrival="55.00" arrivalLane="t_s0_0" arrivalPos="200.00" arrivalSpeed="15.00"
              duration="53.50" routeLength="795.10" waitingTime="0.00" waitingCount="0" stopTime="0.00" timeLoss="0.25"
              rerouteNo="0" devices="tripinfo_flow_ns_cav.0 emissions_flow_ns_cav.0" vType="CAV_STRAIGHT"
              speedFactor="1.07" vaporized="">
        <emissions CO_abs="186.443612" CO2_abs="141263.100108" HC_abs="1.800436" PMx_abs="0.990066" NOx_abs="43.892231"
                   fuel_abs="45056.895946" electricity_abs="0"/>
    </tripinfo>
    <tripinfo id="flow_se_hv.0" depart="2.50" departLane="s_t_0" departPos="5.10" departSpeed="14.26" departDelay="0.00"
              arrival="58.75" arrivalLane="t_e0_0" arrivalPos="200.00" arrivalSpeed="15.00" duration="56.25"
              routeLength="776.93" waitingTime="0.00" waitingCount="0" stopTime="0.00" timeLoss="3.91" rerouteNo="0"
              devices="tripinfo_flow_se_hv.0 emissions_flow_se_hv.0" vType="HV_RIGHT" speedFactor="1.16" vaporized="">
        <emissions CO_abs="491.713712" CO2_abs="134303.177646" HC_abs="3.878757" PMx_abs="1.134182" NOx_abs="43.478338"
                   fuel_abs="42837.001726" electricity_abs="0"/>
    </tripinfo>
    <tripinfo id="flow_en_cav.0" depart="2.50" departLane="e_t_0" departPos="5.10" departSpeed="2.75" departDelay="0.00"
              arrival="60.75" arrivalLane="t_n0_0" arrivalPos="200.00" arrivalSpeed="15.00" duration="58.25"
              routeLength="776.93" waitingTime="0.00" waitingCount="0" stopTime="0.00" timeLoss="5.69" rerouteNo="0"
              devices="tripinfo_flow_en_cav.0 emissions_flow_en_cav.0" vType="CAV_RIGHT" speedFactor="0.88"
              vaporized="">
        <emissions CO_abs="1374.116001" CO2_abs="171180.383590" HC_abs="8.729935" PMx_abs="2.015243" NOx_abs="60.516916"
                   fuel_abs="54599.015686" electricity_abs="0"/>
    </tripinfo>
    <tripinfo id="flow_wn_hv.0" depart="5.50" departLane="w_t_2" departPos="5.10" departSpeed="11.70" departDelay="0.00"
              arrival="62.25" arrivalLane="t_n0_1" arrivalPos="200.00" arrivalSpeed="15.00" duration="56.75"
              routeLength="792.41" waitingTime="0.00" waitingCount="0" stopTime="0.00" timeLoss="3.74" rerouteNo="0"
              devices="tripinfo_flow_wn_hv.0 emissions_flow_wn_hv.0" vType="HV_LEFT" speedFactor="1.08" vaporized="">
        <emissions CO_abs="588.303749" CO2_abs="145891.617885" HC_abs="4.485287" PMx_abs="1.345551" NOx_abs="48.334262"
                   fuel_abs="46533.093878" electricity_abs="0"/>
    </tripinfo>
    <tripinfo id="flow_es_hv.0" depart="14.00" departLane="e_t_2" departPos="5.10" departSpeed="8.95" departDelay="0.00"
              arrival="68.75" arrivalLane="t_s0_1" arrivalPos="200.00" arrivalSpeed="15.00" duration="54.75"
              routeLength="792.41" waitingTime="0.00" waitingCount="0" stopTime="0.00" timeLoss="1.86" rerouteNo="0"
              devices="tripinfo_flow_es_hv.0 emissions_flow_es_hv.0" vType="HV_LEFT" speedFactor="1.13" vaporized="">
        <emissions CO_abs="453.673254" CO2_abs="152254.013283" HC_abs="3.831357" PMx_abs="1.293114" NOx_abs="49.575568"
                   fuel_abs="48562.452195" electricity_abs="0"/>
    </tripinfo>
    <tripinfo id="flow_wn_hv.1" depart="16.00" departLane="w_t_2" departPos="5.10" departSpeed="6.69" departDelay="0.00"
              arrival="74.50" arrivalLane="t_n0_2" arrivalPos="200.00" arrivalSpeed="15.00" duration="58.50"
              routeLength="792.41" waitingTime="0.00" waitingCount="0" stopTime="0.00" timeLoss="4.90" rerouteNo="0"
              devices="tripinfo_flow_wn_hv.1 emissions_flow_wn_hv.1" vType="HV_LEFT" speedFactor="0.84" vaporized="">
        <emissions CO_abs="832.395316" CO2_abs="159010.103878" HC_abs="6.100416" PMx_abs="1.543383" NOx_abs="53.742311"
                   fuel_abs="50717.363635" electricity_abs="0"/>
    </tripinfo>
    <tripinfo id="flow_wn_cav.0" depart="18.50" departLane="w_t_2" departPos="5.10" departSpeed="2.34"
              departDelay="0.00" arrival="76.50" arrivalLane="t_n0_1" arrivalPos="200.00" arrivalSpeed="15.00"
              duration="58.00" routeLength="792.41" waitingTime="0.00" waitingCount="0" stopTime="0.00" timeLoss="4.71"
              rerouteNo="0" devices="tripinfo_flow_wn_cav.0 emissions_flow_wn_cav.0" vType="CAV_LEADER"
              speedFactor="1.00" vaporized="">
        <emissions CO_abs="919.554432" CO2_abs="164448.799422" HC_abs="6.719449" PMx_abs="1.733104" NOx_abs="56.599373"
                   fuel_abs="52451.994333" electricity_abs="0"/>
    </tripinfo>
    <tripinfo id="flow_en_hv.0" depart="20.50" departLane="e_t_0" departPos="5.10" departSpeed="6.89" departDelay="0.00"
              arrival="78.25" arrivalLane="t_n0_0" arrivalPos="200.00" arrivalSpeed="15.00" duration="57.75"
              routeLength="776.93" waitingTime="0.00" waitingCount="0" stopTime="0.00" timeLoss="5.42" rerouteNo="0"
              devices="tripinfo_flow_en_hv.0 emissions_flow_en_hv.0" vType="HV_RIGHT" speedFactor="1.16" vaporized="">
        <emissions CO_abs="963.958734" CO2_abs="157099.625096" HC_abs="6.808317" PMx_abs="1.673073" NOx_abs="54.055471"
                   fuel_abs="50107.945433" electricity_abs="0"/>
    </tripinfo>
    <tripinfo id="flow_se_hv.1" depart="21.75" departLane="s_t_0" departPos="5.10" departSpeed="12.99"
              departDelay="0.00" arrival="79.50" arrivalLane="t_e0_0" arrivalPos="200.00" arrivalSpeed="15.00"
              duration="57.75" routeLength="776.93" waitingTime="0.00" waitingCount="0" stopTime="0.00" timeLoss="5.33"
              rerouteNo="0" devices="tripinfo_flow_se_hv.1 emissions_flow_se_hv.1" vType="HV_RIGHT" speedFactor="0.94"
              vaporized="">
        <emissions CO_abs="763.882806" CO2_abs="142820.435101" HC_abs="5.480122" PMx_abs="1.379180" NOx_abs="47.818727"
                   fuel_abs="45553.600253" electricity_abs="0"/>
    </tripinfo>
    <tripinfo id="flow_wn_hv.2" depart="21.75" departLane="w_t_2" departPos="5.10" departSpeed="5.01" departDelay="0.00"
              arrival="81.50" arrivalLane="t_n0_1" arrivalPos="200.00" arrivalSpeed="14.97" duration="59.75"
              routeLength="792.41" waitingTime="0.00" waitingCount="0" stopTime="0.00" timeLoss="6.51" rerouteNo="0"
              devices="tripinfo_flow_wn_hv.2 emissions_flow_wn_hv.2" vType="HV_LEFT" speedFactor="0.99" vaporized="">
        <emissions CO_abs="707.638846" CO2_abs="161990.608101" HC_abs="6.211010" PMx_abs="1.494621" NOx_abs="54.487009"
                   fuel_abs="51668.096576" electricity_abs="0"/>
    </tripinfo>
    <tripinfo id="flow_en_hv.1" depart="24.00" departLane="e_t_0" departPos="5.10" departSpeed="12.91"
              departDelay="0.00" arrival="84.25" arrivalLane="t_n0_0" arrivalPos="200.00" arrivalSpeed="14.98"
              duration="60.25" routeLength="776.93" waitingTime="0.00" waitingCount="0" stopTime="0.00" timeLoss="7.66"
              rerouteNo="0" devices="tripinfo_flow_en_hv.1 emissions_flow_en_hv.1" vType="HV_RIGHT" speedFactor="1.00"
              vaporized="">
        <emissions CO_abs="653.922747" CO2_abs="145310.166059" HC_abs="5.351975" PMx_abs="1.264419" NOx_abs="48.329186"
                   fuel_abs="46347.819375" electricity_abs="0"/>
    </tripinfo>
    <tripinfo id="flow_wn_hv.3" depart="23.00" departLane="w_t_2" departPos="5.10" departSpeed="0.31" departDelay="1.00"
              arrival="85.75" arrivalLane="t_n0_1" arrivalPos="200.00" arrivalSpeed="14.91" duration="62.75"
              routeLength="792.41" waitingTime="0.00" waitingCount="0" stopTime="0.00" timeLoss="9.84" rerouteNo="0"
              devices="tripinfo_flow_wn_hv.3 emissions_flow_wn_hv.3" vType="HV_LEFT" speedFactor="1.13" vaporized="">
        <emissions CO_abs="1048.388573" CO2_abs="172667.835812" HC_abs="8.032603" PMx_abs="1.619859" NOx_abs="58.719653"
                   fuel_abs="55073.818956" electricity_abs="0"/>
    </tripinfo>
    <tripinfo id="flow_es_cav.0" depart="30.75" departLane="e_t_2" departPos="5.10" departSpeed="2.09"
              departDelay="0.00" arrival="86.00" arrivalLane="t_s0_1" arrivalPos="200.00" arrivalSpeed="15.00"
              duration="55.25" routeLength="792.41" waitingTime="0.00" waitingCount="0" stopTime="0.00" timeLoss="2.12"
              rerouteNo="0" devices="tripinfo_flow_es_cav.0 emissions_flow_es_cav.0" vType="CAV_LEADER"
              speedFactor="1.08" vaporized="">
        <emissions CO_abs="830.244191" CO2_abs="166372.273810" HC_abs="5.676910" PMx_abs="1.660476" NOx_abs="56.069909"
                   fuel_abs="53065.483313" electricity_abs="0"/>
    </tripinfo>
    <tripinfo id="flow_wn_hv.4" depart="26.00" departLane="w_t_2" departPos="5.10" departSpeed="0.00" departDelay="1.75"
              arrival="90.00" arrivalLane="t_n0_2" arrivalPos="200.00" arrivalSpeed="15.00" duration="64.00"
              routeLength="792.41" waitingTime="0.00" waitingCount="0" stopTime="0.00" timeLoss="10.58" rerouteNo="0"
              devices="tripinfo_flow_wn_hv.4 emissions_flow_wn_hv.4" vType="HV_LEFT" speedFactor="0.87" vaporized="">
        <emissions CO_abs="1250.894480" CO2_abs="175009.397075" HC_abs="8.979464" PMx_abs="1.751607" NOx_abs="60.426603"
                   fuel_abs="55820.663404" electricity_abs="0"/>
    </tripinfo>
    <tripinfo id="flow_wn_cav.1" depart="29.50" departLane="w_t_2" departPos="5.10" departSpeed="3.82"
              departDelay="0.00" arrival="92.00" arrivalLane="t_n0_1" arrivalPos="200.00" arrivalSpeed="15.00"
              duration="62.50" routeLength="792.41" waitingTime="0.00" waitingCount="0" stopTime="0.00" timeLoss="9.16"
              rerouteNo="0" devices="tripinfo_flow_wn_cav.1 emissions_flow_wn_cav.1" vType="CAV_LEADER"
              speedFactor="0.97" vaporized="">
        <emissions CO_abs="1038.346161" CO2_abs="168464.207357" HC_abs="7.781419" PMx_abs="1.640051" NOx_abs="57.630021"
                   fuel_abs="53732.961357" electricity_abs="0"/>
    </tripinfo>
    <tripinfo id="flow_nw_hv.0" depart="32.25" departLane="n_t_0" departPos="5.10" departSpeed="0.70" departDelay="0.00"
              arrival="93.50" arrivalLane="t_w0_0" arrivalPos="200.00" arrivalSpeed="15.00" duration="61.25"
              routeLength="776.93" waitingTime="0.00" waitingCount="0" stopTime="0.00" timeLoss="8.77" rerouteNo="0"
              devices="tripinfo_flow_nw_hv.0 emissions_flow_nw_hv.0" vType="HV_RIGHT" speedFactor="0.94" vaporized="">
        <emissions CO_abs="1593.401406" CO2_abs="172193.723290" HC_abs="10.092130" PMx_abs="2.085921"
                   NOx_abs="61.493856" fuel_abs="54922.338409" electricity_abs="0"/>
    </tripinfo>
    <tripinfo id="flow_wn_hv.5" depart="33.75" departLane="w_t_2" departPos="5.10" departSpeed="10.12"
              departDelay="0.00" arrival="96.25" arrivalLane="t_n0_1" arrivalPos="200.00" arrivalSpeed="14.91"
              duration="62.50" routeLength="792.41" waitingTime="0.00" waitingCount="0" stopTime="0.00" timeLoss="9.38"
              rerouteNo="0" devices="tripinfo_flow_wn_hv.5 emissions_flow_wn_hv.5" vType="HV_LEFT" speedFactor="1.00"
              vaporized="">
        <emissions CO_abs="546.444338" CO2_abs="155375.775955" HC_abs="5.441090" PMx_abs="1.175992" NOx_abs="50.820902"
                   fuel_abs="49558.468211" electricity_abs="0"/>
    </tripinfo>
    <tripinfo id="flow_es_cav.1" depart="44.25" departLane="e_t_2" departPos="5.10" departSpeed="11.78"
              departDelay="0.00" arrival="97.75" arrivalLane="t_s0_1" arrivalPos="200.00" arrivalSpeed="15.00"
              duration="53.50" routeLength="792.41" waitingTime="0.00" waitingCount="0" stopTime="0.00" timeLoss="0.35"
              rerouteNo="0" devices="tripinfo_flow_es_cav.1 emissions_flow_es_cav.1" vType="CAV_LEFT@flow_es_cav.1"
              speedFactor="1.01" vaporized="">
        <emissions CO_abs="285.047701" CO2_abs="144683.378443" HC_abs="2.640627" PMx_abs="1.145440" NOx_abs="46.123535"
                   fuel_abs="46147.753929" electricity_abs="0"/>
    </tripinfo>
    <tripinfo id="flow_nw_hv.1" depart="35.50" departLane="n_t_0" departPos="5.10" departSpeed="5.13" departDelay="0.00"
              arrival="98.25" arrivalLane="t_w0_0" arrivalPos="200.00" arrivalSpeed="14.94" duration="62.75"
              routeLength="776.93" waitingTime="0.00" waitingCount="0" stopTime="0.00" timeLoss="10.54" rerouteNo="0"
              devices="tripinfo_flow_nw_hv.1 emissions_flow_nw_hv.1" vType="HV_RIGHT" speedFactor="1.08" vaporized="">
        <emissions CO_abs="1165.398554" CO2_abs="166362.791510" HC_abs="8.406024" PMx_abs="1.730047" NOx_abs="57.994051"
                   fuel_abs="53062.649247" electricity_abs="0"/>
    </tripinfo>
    <tripinfo id="flow_ws_hv.0" depart="39.75" departLane="w_t_0" departPos="5.10" departSpeed="3.49" departDelay="0.00"
              arrival="99.75" arrivalLane="t_s0_0" arrivalPos="200.00" arrivalSpeed="15.00" duration="60.00"
              routeLength="776.93" waitingTime="0.00" waitingCount="0" stopTime="0.00" timeLoss="7.54" rerouteNo="0"
              devices="tripinfo_flow_ws_hv.0 emissions_flow_ws_hv.0" vType="HV_RIGHT" speedFactor="0.94" vaporized="">
        <emissions CO_abs="1386.957502" CO2_abs="167630.415903" HC_abs="9.037148" PMx_abs="1.979394" NOx_abs="59.404663"
                   fuel_abs="53466.800239" electricity_abs="0"/>
    </tripinfo>
    <tripinfo id="flow_wn_hv.6" depart="45.00" departLane="w_t_2" departPos="5.10" departSpeed="9.28" departDelay="0.00"
              arrival="100.75" arrivalLane="t_n0_1" arrivalPos="200.00" arrivalSpeed="15.00" duration="55.75"
              routeLength="792.41" waitingTime="0.00" waitingCount="0" stopTime="0.00" timeLoss="2.86" rerouteNo="0"
              devices="tripinfo_flow_wn_hv.6 emissions_flow_wn_hv.6" vType="HV_LEFT" speedFactor="1.15" vaporized="">
        <emissions CO_abs="345.716324" CO2_abs="150524.039253" HC_abs="3.334087" PMx_abs="1.158162" NOx_abs="48.284730"
                   fuel_abs="48010.750624" electricity_abs="0"/>
    </tripinfo>
    <tripinfo id="flow_en_hv.2" depart="45.50" departLane="e_t_0" departPos="5.10" departSpeed="3.00" departDelay="0.00"
              arrival="104.50" arrivalLane="t_n0_0" arrivalPos="200.00" arrivalSpeed="15.00" duration="59.00"
              routeLength="776.93" waitingTime="0.00" waitingCount="0" stopTime="0.00" timeLoss="6.70" rerouteNo="0"
              devices="tripinfo_flow_en_hv.2 emissions_flow_en_hv.2" vType="HV_RIGHT" speedFactor="1.15" vaporized="">
        <emissions CO_abs="1233.264071" CO2_abs="165052.905394" HC_abs="8.292569" PMx_abs="1.877999" NOx_abs="57.873161"
                   fuel_abs="52644.695766" electricity_abs="0"/>
    </tripinfo>
    <tripinfo id="flow_ws_cav.0" depart="48.25" departLane="w_t_0" departPos="5.10" departSpeed="7.71"
              departDelay="0.00" arrival="105.25" arrivalLane="t_s0_0" arrivalPos="200.00" arrivalSpeed="15.00"
              duration="57.00" routeLength="776.93" waitingTime="0.00" waitingCount="0" stopTime="0.00" timeLoss="4.69"
              rerouteNo="0" devices="tripinfo_flow_ws_cav.0 emissions_flow_ws_cav.0" vType="CAV_RIGHT"
              speedFactor="1.07" vaporized="">
        <emissions CO_abs="931.074113" CO2_abs="159225.330862" HC_abs="6.492540" PMx_abs="1.658081" NOx_abs="54.624541"
                   fuel_abs="50785.929785" electricity_abs="0"/>
    </tripinfo>
    <tripinfo id="flow_sw_cav.0" depart="4.25" departLane="s_t_2" departPos="5.10" departSpeed="10.98"
              departDelay="0.00" arrival="110.00" arrivalLane="t_w0_1" arrivalPos="200.00" arrivalSpeed="15.00"
              duration="105.75" routeLength="792.41" waitingTime="46.00" waitingCount="1" stopTime="0.00"
              timeLoss="52.50" rerouteNo="0" devices="tripinfo_flow_sw_cav.0 emissions_flow_sw_cav.0" vType="CAV_LEADER"
              speedFactor="0.93" vaporized="">
        <emissions CO_abs="8872.038419" CO2_abs="287393.612021" HC_abs="45.231343" PMx_abs="4.929564"
                   NOx_abs="113.552563" fuel_abs="91668.306352" electricity_abs="0"/>
    </tripinfo>
    <tripinfo id="flow_ws_hv.1" depart="49.75" departLane="w_t_0" departPos="5.10" departSpeed="7.98" departDelay="0.00"
              arrival="111.25" arrivalLane="t_s0_0" arrivalPos="200.00" arrivalSpeed="14.98" duration="61.50"
              routeLength="776.93" waitingTime="0.00" waitingCount="0" stopTime="0.00" timeLoss="8.98" rerouteNo="0"
              devices="tripinfo_flow_ws_hv.1 emissions_flow_ws_hv.1" vType="HV_RIGHT" speedFactor="0.95" vaporized="">
        <emissions CO_abs="1035.944155" CO2_abs="162549.019210" HC_abs="7.624743" PMx_abs="1.657722" NOx_abs="56.245060"
                   fuel_abs="51846.190227" electricity_abs="0"/>
    </tripinfo>
    <tripinfo id="flow_ne_hv.0" depart="0.25" departLane="n_t_2" departPos="5.10" departSpeed="5.62" departDelay="0.00"
              arrival="111.50" arrivalLane="t_e0_1" arrivalPos="200.00" arrivalSpeed="15.00" duration="111.25"
              routeLength="792.41" waitingTime="40.25" waitingCount="3" stopTime="0.00" timeLoss="57.96" rerouteNo="0"
              devices="tripinfo_flow_ne_hv.0 emissions_flow_ne_hv.0" vType="HV_LEFT" speedFactor="0.95" vaporized="">
        <emissions CO_abs="8831.842080" CO2_abs="289847.529141" HC_abs="45.632405" PMx_abs="5.009400"
                   NOx_abs="115.323477" fuel_abs="92450.936516" electricity_abs="0"/>
    </tripinfo>
    <tripinfo id="flow_nw_cav.0" depart="56.50" departLane="n_t_0" departPos="5.10" departSpeed="3.46"
              departDelay="0.00" arrival="114.00" arrivalLane="t_w0_0" arrivalPos="200.00" arrivalSpeed="15.00"
              duration="57.50" routeLength="776.93" waitingTime="0.00" waitingCount="0" stopTime="0.00" timeLoss="5.03"
              rerouteNo="0" devices="tripinfo_flow_nw_cav.0 emissions_flow_nw_cav.0" vType="CAV_RIGHT"
              speedFactor="1.02" vaporized="">
        <emissions CO_abs="1219.184908" CO2_abs="167727.131524" HC_abs="7.953985" PMx_abs="1.904920" NOx_abs="58.676760"
                   fuel_abs="53497.586829" electricity_abs="0"/>
    </tripinfo>
    <tripinfo id="flow_sw_hv.0" depart="12.75" departLane="s_t_2" departPos="5.10" departSpeed="8.98" departDelay="0.00"
              arrival="114.75" arrivalLane="t_w0_2" arrivalPos="200.00" arrivalSpeed="15.00" duration="102.00"
              routeLength="792.41" waitingTime="31.00" waitingCount="1" stopTime="0.00" timeLoss="48.85" rerouteNo="0"
              devices="tripinfo_flow_sw_hv.0 emissions_flow_sw_hv.0" vType="HV_LEFT" speedFactor="1.03" vaporized="">
        <emissions CO_abs="7077.019881" CO2_abs="260015.010110" HC_abs="37.229787" PMx_abs="4.201011"
                   NOx_abs="101.275360" fuel_abs="82935.273551" electricity_abs="0"/>
    </tripinfo>
    <tripinfo id="flow_ne_hv.1" depart="14.75" departLane="n_t_2" departPos="5.10" departSpeed="2.34" departDelay="0.00"
              arrival="115.75" arrivalLane="t_e0_2" arrivalPos="200.00" arrivalSpeed="15.00" duration="101.00"
              routeLength="792.41" waitingTime="26.75" waitingCount="1" stopTime="0.00" timeLoss="47.64" rerouteNo="0"
              devices="tripinfo_flow_ne_hv.1 emissions_flow_ne_hv.1" vType="HV_LEFT" speedFactor="0.88" vaporized="">
        <emissions CO_abs="6912.153449" CO2_abs="263386.088346" HC_abs="36.746414" PMx_abs="4.291407"
                   NOx_abs="103.230904" fuel_abs="84010.320375" electricity_abs="0"/>
    </tripinfo>
    <tripinfo id="flow_sw_cav.1" depart="24.25" departLane="s_t_2" departPos="5.10" departSpeed="12.49"
              departDelay="0.00" arrival="116.50" arrivalLane="t_w0_1" arrivalPos="200.00" arrivalSpeed="15.00"
              duration="92.25" routeLength="792.41" waitingTime="24.00" waitingCount="1" stopTime="0.00"
              timeLoss="39.10" rerouteNo="0" devices="tripinfo_flow_sw_cav.1 emissions_flow_sw_cav.1" vType="CAV_LEADER"
              speedFactor="1.10" vaporized="">
        <emissions CO_abs="5717.197854" CO2_abs="233388.703824" HC_abs="30.095143" PMx_abs="3.515423"
                   NOx_abs="88.752647" fuel_abs="74442.326414" electricity_abs="0"/>
    </tripinfo>
    <tripinfo id="flow_ne_cav.0" depart="40.00" departLane="n_t_2" departPos="5.10" departSpeed="6.84"
              departDelay="0.00" arrival="117.25" arrivalLane="t_e0_1" arrivalPos="200.00" arrivalSpeed="15.00"
              duration="77.25" routeLength="792.41" waitingTime="7.75" waitingCount="1" stopTime="0.00" timeLoss="24.28"
              rerouteNo="0" devices="tripinfo_flow_ne_cav.0 emissions_flow_ne_cav.0" vType="CAV_LEADER"
              speedFactor="1.08" vaporized="">
        <emissions CO_abs="3534.944666" CO2_abs="216246.448457" HC_abs="19.827723" PMx_abs="2.975809"
                   NOx_abs="80.314165" fuel_abs="68973.779893" electricity_abs="0"/>
    </tripinfo>
    <tripinfo id="flow_ws_hv.2" depart="58.75" departLane="w_t_0" departPos="5.10" departSpeed="9.15" departDelay="0.00"
              arrival="117.50" arrivalLane="t_s0_0" arrivalPos="200.00" arrivalSpeed="14.99" duration="58.75"
              routeLength="776.93" waitingTime="0.00" waitingCount="0" stopTime="0.00" timeLoss="6.41" rerouteNo="0"
              devices="tripinfo_flow_ws_hv.2 emissions_flow_ws_hv.2" vType="HV_RIGHT" speedFactor="1.05" vaporized="">
        <emissions CO_abs="870.167919" CO2_abs="154596.327127" HC_abs="6.414081" PMx_abs="1.542562" NOx_abs="52.724810"
                   fuel_abs="49309.564778" electricity_abs="0"/>
    </tripinfo>
    <tripinfo id="flow_sw_cav.2" depart="54.75" departLane="s_t_2" departPos="5.10" departSpeed="14.13"
              departDelay="0.00" arrival="119.25" arrivalLane="t_w0_1" arrivalPos="200.00" arrivalSpeed="14.94"
              duration="64.50" routeLength="792.41" waitingTime="0.00" waitingCount="0" stopTime="0.00" timeLoss="11.32"
              rerouteNo="0" devices="tripinfo_flow_sw_cav.2 emissions_flow_sw_cav.2" vType="CAV_LEFT@flow_sw_cav.2"
              speedFactor="1.03" vaporized="">
        <emissions CO_abs="1045.901105" CO2_abs="155733.792753" HC_abs="7.300976" PMx_abs="1.500229" NOx_abs="52.839961"
                   fuel_abs="49672.538477" electricity_abs="0"/>
    </tripinfo>
    <tripinfo id="flow_nw_hv.2" depart="64.00" departLane="n_t_0" departPos="5.10" departSpeed="13.64"
              departDelay="0.00" arrival="121.00" arrivalLane="t_w0_0" arrivalPos="200.00" arrivalSpeed="14.99"
              duration="57.00" routeLength="776.93" waitingTime="0.00" waitingCount="0" stopTime="0.00" timeLoss="4.72"
              rerouteNo="0" devices="tripinfo_flow_nw_hv.2 emissions_flow_nw_hv.2" vType="HV_RIGHT" speedFactor="1.21"
              vaporized="">
        <emissions CO_abs="439.068019" CO2_abs="137806.784527" HC_abs="3.847762" PMx_abs="1.096103" NOx_abs="44.476833"
                   fuel_abs="43954.535857" electricity_abs="0"/>
    </tripinfo>
    <tripinfo id="flow_ne_cav.1" depart="67.00" departLane="n_t_2" departPos="5.10" departSpeed="9.94"
              departDelay="0.00" arrival="121.75" arrivalLane="t_e0_1" arrivalPos="200.00" arrivalSpeed="14.99"
              duration="54.75" routeLength="792.41" waitingTime="0.00" waitingCount="0" stopTime="0.00" timeLoss="1.13"
              rerouteNo="0" devices="tripinfo_flow_ne_cav.1 emissions_flow_ne_cav.1" vType="CAV_LEFT@flow_ne_cav.1"
              speedFactor="0.88" vaporized="">
        <emissions CO_abs="537.078928" CO2_abs="157081.086305" HC_abs="4.310142" PMx_abs="1.444918" NOx_abs="51.981177"
                   fuel_abs="50102.002694" electricity_abs="0"/>
    </tripinfo>
    <tripinfo id="flow_nw_cav.1" depart="75.50" departLane="n_t_0" departPos="5.10" departSpeed="3.12"
              departDelay="0.00" arrival="133.50" arrivalLane="t_w0_0" arrivalPos="200.00" arrivalSpeed="15.00"
              duration="58.00" routeLength="776.93" waitingTime="0.00" waitingCount="0" stopTime="0.00" timeLoss="5.44"
              rerouteNo="0" devices="tripinfo_flow_nw_cav.1 emissions_flow_nw_cav.1" vType="CAV_RIGHT"
              speedFactor="0.94" vaporized="">
        <emissions CO_abs="1295.482396" CO2_abs="169959.023817" HC_abs="8.307074" PMx_abs="1.952411" NOx_abs="59.769936"
                   fuel_abs="54209.462950" electricity_abs="0"/>
    </tripinfo>
    <tripinfo id="flow_ne_cav.2" depart="86.00" departLane="n_t_2" departPos="5.10" departSpeed="13.90"
              departDelay="0.00" arrival="139.50" arrivalLane="t_e0_1" arrivalPos="200.00" arrivalSpeed="15.00"
              duration="53.50" routeLength="792.41" waitingTime="0.00" waitingCount="0" stopTime="0.00" timeLoss="0.25"
              rerouteNo="0" devices="tripinfo_flow_ne_cav.2 emissions_flow_ne_cav.2" vType="CAV_LEADER"
              speedFactor="0.98" vaporized="">
        <emissions CO_abs="234.923056" CO2_abs="140724.790442" HC_abs="2.213375" PMx_abs="1.046546" NOx_abs="44.259547"
                   fuel_abs="44885.174624" electricity_abs="0"/>
    </tripinfo>
    <tripinfo id="flow_ws_cav.1" depart="86.25" departLane="w_t_0" departPos="5.10" departSpeed="8.97"
              departDelay="0.00" arrival="141.75" arrivalLane="t_s0_0" arrivalPos="200.00" arrivalSpeed="15.00"
              duration="55.50" routeLength="776.93" waitingTime="0.00" waitingCount="0" stopTime="0.00" timeLoss="3.23"
              rerouteNo="0" devices="tripinfo_flow_ws_cav.1 emissions_flow_ws_cav.1" vType="CAV_RIGHT"
              speedFactor="1.22" vaporized="">
        <emissions CO_abs="784.660468" CO2_abs="152414.172142" HC_abs="5.527280" PMx_abs="1.522558" NOx_abs="51.453805"
                   fuel_abs="48613.466500" electricity_abs="0"/>
    </tripinfo>
    <tripinfo id="flow_nw_hv.3" depart="88.75" departLane="n_t_0" departPos="5.10" departSpeed="10.91"
              departDelay="0.00" arrival="148.00" arrivalLane="t_w0_0" arrivalPos="200.00" arrivalSpeed="15.00"
              duration="59.25" routeLength="776.93" waitingTime="0.00" waitingCount="0" stopTime="0.00" timeLoss="6.41"
              rerouteNo="0" devices="tripinfo_flow_nw_hv.3 emissions_flow_nw_hv.3" vType="HV_RIGHT" speedFactor="0.82"
              vaporized="">
        <emissions CO_abs="1009.366988" CO2_abs="153763.504150" HC_abs="6.839947" PMx_abs="1.592213" NOx_abs="52.513678"
                   fuel_abs="49043.945287" electricity_abs="0"/>
    </tripinfo>
    <tripinfo id="flow_we_cav.0" depart="19.50" departLane="w_t_1" departPos="5.10" departSpeed="1.50"
              departDelay="0.00" arrival="148.25" arrivalLane="t_e0_0" arrivalPos="200.00" arrivalSpeed="15.00"
              duration="128.75" routeLength="795.10" waitingTime="68.00" waitingCount="1" stopTime="0.00"
              timeLoss="75.64" rerouteNo="0" devices="tripinfo_flow_we_cav.0 emissions_flow_we_cav.0" vType="CAV_LEADER"
              speedFactor="0.99" vaporized="">
        <emissions CO_abs="12968.157463" CO2_abs="373342.371530" HC_abs="65.868227" PMx_abs="6.925766"
                   NOx_abs="151.981796" fuel_abs="119083.233890" electricity_abs="0"/>
    </tripinfo>
    <tripinfo id="flow_ew_hv.0" depart="20.50" departLane="e_t_1" departPos="5.10" departSpeed="0.87" departDelay="0.00"
              arrival="149.50" arrivalLane="t_w0_1" arrivalPos="200.00" arrivalSpeed="15.00" duration="129.00"
              routeLength="795.10" waitingTime="56.25" waitingCount="3" stopTime="0.00" timeLoss="75.97" rerouteNo="0"
              devices="tripinfo_flow_ew_hv.0 emissions_flow_ew_hv.0" vType="HV_STRAIGHT" speedFactor="0.82"
              vaporized="">
        <emissions CO_abs="11751.203794" CO2_abs="339944.953138" HC_abs="60.112510" PMx_abs="6.249070"
                   NOx_abs="138.246706" fuel_abs="108430.665580" electricity_abs="0"/>
    </tripinfo>
    <tripinfo id="flow_ws_hv.3" depart="91.00" departLane="w_t_0" departPos="5.10" departSpeed="4.90" departDelay="0.00"