<?xml version="1.0" encoding="UTF-8"?>

<!-- generated on 2024-11-16 11:37:16 by Eclipse SUMO GUI Version 1.21.0
This data file and the accompanying materials
are made available under the terms of the Eclipse Public License v2.0
which accompanies this distribution, and is available at
http://www.eclipse.org/legal/epl-v20.html
This file may also be made available under the following Secondary
Licenses when the conditions for such availability set forth in the Eclipse
Public License 2.0 are satisfied: GNU General Public License, version 2
or later which is available at
https://www.gnu.org/licenses/old-licenses/gpl-2.0-standalone.html
SPDX-License-Identifier: EPL-2.0 OR GPL-2.0-or-later
<sumoConfiguration xmlns:xsi="http://www.w3.org/2001/XMLSchema-instance" xsi:noNamespaceSchemaLocation="http://sumo.dlr.de/xsd/sumoConfiguration.xsd">

    <input>
        <net-file value="net/single-stage2.net.xml"/>
        <route-files value="net/single-stage2.rou.xml"/>
        <additional-files value="net/single_test.add.xml"/>
    </input>

    <output>
        <write-license value="true"/>
        <tripinfo-output value="net/tripinfo.xml"/>
    </output>

    <time>
        <begin value="0"/>
        <end value="3600"/>
        <step-length value="0.25"/>
    </time>

    <processing>
        <collision.action value="warn"/>
        <time-to-teleport value="-1"/>
        <default.speeddev value="0.1"/>
    </processing>

    <emissions>
        <device.emissions.probability value="1.0"/>
    </emissions>

    <traci_server>
        <remote-port value="50809"/>
    </traci_server>

    <random_number>
        <seed value="42"/>
    </random_number>

    <gui_only>
        <gui-settings-file value="net/gui.xml"/>
    </gui_only>

</sumoConfiguration>
-->

<tripinfos xmlns:xsi="http://www.w3.org/2001/XMLSchema-instance"
           xsi:noNamespaceSchemaLocation="http://sumo.dlr.de/xsd/tripinfo_file.xsd">
    <tripinfo id="flow_ns_cav.0" depart="1.50" departLane="n_t_1" departPos="5.10" departSpeed="11.95"
              departDelay="0.00" arrival="55.00" arrivalLane="t_s0_0" arrivalPos="200.00" arrivalSpeed="15.00"
              duration="53.50" routeLength="795.10" waitingTime="0.00" waitingCount="0" stopTime="0.00" timeLoss="0.25"
              rerouteNo="0" devices="tripinfo_flow_ns_cav.0 emissions_flow_ns_cav.0" vType="CAV_STRAIGHT"
              speedFactor="1.07" vaporized="">
        <emissions CO_abs="186.443612" CO2_abs="141263.100108" HC_abs="1.800436" PMx_abs="0.990066" NOx_abs="43.892231"
                   fuel_abs="45056.895946" electricity_abs="0"/>
    </tripinfo>
</tripinfos>
